#!/usr/bin/env bash
# Forces the termination of the process created by script "7-highlander".

kill -9 $(pgrep -f "7-highlander")
